 Gaussian 16, Revision C.01,
 Gaussian 16:  ES64L-G16RevC.01  3-Jul-2019

 ---------------------------
 # p opt pbe1pbe/aug-cc-pvtz
 ---------------------------

 -----
 water
 -----
 Symbolic Z-matrix:
 Charge =  0 Multiplicity = 1

 SCF Done:  E(RPBE1PBE) =  -76.3794673193     A.U. after    8 cycles
 SCF Done:  E(RPBE1PBE) =  -76.3799740333     A.U. after    7 cycles
 SCF Done:  E(RPBE1PBE) =  -76.3799838498     A.U. after    6 cycles
 Optimization completed.
    -- Stationary point found.

                         Standard orientation:
 ---------------------------------------------------------------------
 Center     Atomic      Atomic             Coordinates (Angstroms)
 Number     Number       Type             X           Y           Z
 ---------------------------------------------------------------------
      1          8           0        0.000000    0.000000    0.116878
      2          1           0       -0.000000    0.759919   -0.467514
      3          1           0       -0.000000   -0.759919   -0.467514
 ---------------------------------------------------------------------

 The electronic state is 1-A1.
 Alpha  occ. eigenvalues --  -19.21404  -1.04533  -0.55149  -0.41000  -0.33374
 Alpha virt. eigenvalues --   -0.01246   0.02859   0.08696   0.10705   0.11496
 Alpha virt. eigenvalues --    0.12824   0.16301   0.18321   0.20435   0.23330
 Alpha virt. eigenvalues --    0.23816   0.31858   0.34399   0.36263   0.48629

 Mulliken charges:
               1
     1  O   -0.347479
     2  H    0.173740
     3  H    0.173740
 Sum of Mulliken charges =   0.00000

 Dipole moment (field-independent basis, Debye):
    X=             -0.0000    Y=              0.0000    Z=             -1.8536  Tot=              1.8536
 Quadrupole moment (field-independent basis, Debye-Ang):
   XX=             -7.7300   YY=             -4.4080   ZZ=             -6.4256
   XY=              0.0000   XZ=              0.0000   YZ=             -0.0000

 Normal termination of Gaussian 16 at Thu Feb 23 12:24:14 2023.
